# vtk DataFile Version 2.0
VTK from Matlab
ASCII
DATASET STRUCTURED_GRID
DIMENSIONS 2000 1 1
POINTS 2000 float
0.00 0.20 0.00 0.03 0.20 0.00 0.05 0.20 0.00 0.08 0.20 0.00 0.10 0.20 0.00 0.13 0.20 0.00 0.15 0.20 0.00 0.18 0.20 0.00 0.21 0.20 0.00 0.23 0.20 0.00 0.26 0.20 0.00 0.28 0.20 0.00 0.31 0.20 0.00 0.33 0.20 0.00 0.36 0.20 0.00 0.38 0.20 0.00 0.41 0.20 0.00 0.44 0.20 0.00 0.46 0.20 0.00 0.49 0.20 0.00 0.51 0.20 0.00 0.54 0.20 0.00 0.56 0.20 0.00 0.59 0.20 0.00 0.62 0.20 0.00 0.64 0.20 0.00 0.67 0.20 0.00 0.69 0.20 0.00 0.72 0.20 0.00 0.74 0.20 0.00 0.77 0.20 0.00 0.79 0.20 0.00 0.82 0.20 0.00 0.85 0.20 0.00 0.87 0.20 0.00 0.90 0.20 0.00 0.92 0.20 0.00 0.95 0.20 0.00 0.97 0.20 0.00 1.00 0.20 0.00 0.00 0.20 0.00 0.03 0.20 0.00 0.05 0.20 0.00 0.08 0.20 0.00 0.10 0.20 0.00 0.13 0.20 0.00 0.15 0.20 0.00 0.18 0.20 0.00 0.21 0.20 0.00 0.23 0.20 0.00 0.26 0.20 0.00 0.28 0.20 0.00 0.31 0.20 0.00 0.33 0.20 0.00 0.36 0.20 0.00 0.38 0.20 0.00 0.41 0.20 0.00 0.44 0.20 0.00 0.46 0.20 0.00 0.49 0.20 0.00 0.51 0.20 0.00 0.54 0.20 0.00 0.56 0.20 0.00 0.59 0.20 0.00 0.62 0.20 0.00 0.64 0.20 0.00 0.67 0.20 0.00 0.69 0.20 0.00 0.72 0.20 0.00 0.74 0.20 0.00 0.77 0.20 0.00 0.79 0.20 0.00 0.82 0.20 0.00 0.85 0.20 0.00 0.87 0.20 0.00 0.90 0.20 0.00 0.92 0.20 0.00 0.95 0.20 0.00 0.97 0.20 0.00 1.00 0.20 0.00 0.00 0.19 0.00 0.03 0.19 0.00 0.05 0.19 0.00 0.08 0.19 0.00 0.10 0.19 0.00 0.13 0.19 0.00 0.15 0.19 0.00 0.18 0.19 0.00 0.21 0.19 0.00 0.23 0.19 0.00 0.26 0.19 0.00 0.28 0.19 0.00 0.31 0.19 0.00 0.33 0.19 0.00 0.36 0.19 0.00 0.38 0.19 0.00 0.41 0.19 0.00 0.44 0.19 0.00 0.46 0.19 0.00 0.49 0.19 0.00 0.51 0.19 0.00 0.54 0.19 0.00 0.56 0.19 0.00 0.59 0.19 0.00 0.62 0.19 0.00 0.64 0.19 0.00 0.67 0.19 0.00 0.69 0.19 0.00 0.72 0.19 0.00 0.74 0.19 0.00 0.77 0.19 0.00 0.79 0.19 0.00 0.82 0.19 0.00 0.85 0.19 0.00 0.87 0.19 0.00 0.90 0.19 0.00 0.92 0.19 0.00 0.95 0.19 0.00 0.97 0.19 0.00 1.00 0.19 0.00 0.00 0.19 0.00 0.03 0.19 0.00 0.05 0.19 0.00 0.08 0.19 0.00 0.10 0.19 0.00 0.13 0.19 0.00 0.15 0.19 0.00 0.18 0.19 0.00 0.21 0.19 0.00 0.23 0.19 0.00 0.26 0.19 0.00 0.28 0.19 0.00 0.31 0.19 0.00 0.33 0.19 0.00 0.36 0.19 0.00 0.38 0.19 0.00 0.41 0.19 0.00 0.44 0.19 0.00 0.46 0.19 0.00 0.49 0.19 0.00 0.51 0.19 0.00 0.54 0.19 0.00 0.56 0.19 0.00 0.59 0.19 0.00 0.62 0.19 0.00 0.64 0.19 0.00 0.67 0.19 0.00 0.69 0.19 0.00 0.72 0.19 0.00 0.74 0.19 0.00 0.77 0.19 0.00 0.79 0.19 0.00 0.82 0.19 0.00 0.85 0.19 0.00 0.87 0.19 0.00 0.90 0.19 0.00 0.92 0.19 0.00 0.95 0.19 0.00 0.97 0.19 0.00 1.00 0.19 0.00 0.00 0.18 0.00 0.03 0.18 0.00 0.05 0.18 0.00 0.08 0.18 0.00 0.10 0.18 0.00 0.13 0.18 0.00 0.15 0.18 0.00 0.18 0.18 0.00 0.21 0.18 0.00 0.23 0.18 0.00 0.26 0.18 0.00 0.28 0.18 0.00 0.31 0.18 0.00 0.33 0.18 0.00 0.36 0.18 0.00 0.38 0.18 0.00 0.41 0.18 0.00 0.44 0.18 0.00 0.46 0.18 0.00 0.49 0.18 0.00 0.51 0.18 0.00 0.54 0.18 0.00 0.56 0.18 0.00 0.59 0.18 0.00 0.62 0.18 0.00 0.64 0.18 0.00 0.67 0.18 0.00 0.69 0.18 0.00 0.72 0.18 0.00 0.74 0.18 0.00 0.77 0.18 0.00 0.79 0.18 0.00 0.82 0.18 0.00 0.85 0.18 0.00 0.87 0.18 0.00 0.90 0.18 0.00 0.92 0.18 0.00 0.95 0.18 0.00 0.97 0.18 0.00 1.00 0.18 0.00 0.00 0.18 0.00 0.03 0.18 0.00 0.05 0.18 0.00 0.08 0.18 0.00 0.10 0.18 0.00 0.13 0.18 0.00 0.15 0.18 0.00 0.18 0.18 0.00 0.21 0.18 0.00 0.23 0.18 0.00 0.26 0.18 0.00 0.28 0.18 0.00 0.31 0.18 0.00 0.33 0.18 0.00 0.36 0.18 0.00 0.38 0.18 0.00 0.41 0.18 0.00 0.44 0.18 0.00 0.46 0.18 0.00 0.49 0.18 0.00 0.51 0.18 0.00 0.54 0.18 0.00 0.56 0.18 0.00 0.59 0.18 0.00 0.62 0.18 0.00 0.64 0.18 0.00 0.67 0.18 0.00 0.69 0.18 0.00 0.72 0.18 0.00 0.74 0.18 0.00 0.77 0.18 0.00 0.79 0.18 0.00 0.82 0.18 0.00 0.85 0.18 0.00 0.87 0.18 0.00 0.90 0.18 0.00 0.92 0.18 0.00 0.95 0.18 0.00 0.97 0.18 0.00 1.00 0.18 0.00 0.00 0.18 0.00 0.03 0.18 0.00 0.05 0.18 0.00 0.08 0.18 0.00 0.10 0.18 0.00 0.13 0.18 0.00 0.15 0.18 0.00 0.18 0.18 0.00 0.21 0.18 0.00 0.23 0.18 0.00 0.26 0.18 0.00 0.28 0.18 0.00 0.31 0.18 0.00 0.33 0.18 0.00 0.36 0.18 0.00 0.38 0.18 0.00 0.41 0.18 0.00 0.44 0.18 0.00 0.46 0.18 0.00 0.49 0.18 0.00 0.51 0.18 0.00 0.54 0.18 0.00 0.56 0.18 0.00 0.59 0.18 0.00 0.62 0.18 0.00 0.64 0.18 0.00 0.67 0.18 0.00 0.69 0.18 0.00 0.72 0.18 0.00 0.74 0.18 0.00 0.77 0.18 0.00 0.79 0.18 0.00 0.82 0.18 0.00 0.85 0.18 0.00 0.87 0.18 0.00 0.90 0.18 0.00 0.92 0.18 0.00 0.95 0.18 0.00 0.97 0.18 0.00 1.00 0.18 0.00 0.00 0.17 0.00 0.03 0.17 0.00 0.05 0.17 0.00 0.08 0.17 0.00 0.10 0.17 0.00 0.13 0.17 0.00 0.15 0.17 0.00 0.18 0.17 0.00 0.21 0.17 0.00 0.23 0.17 0.00 0.26 0.17 0.00 0.28 0.17 0.00 0.31 0.17 0.00 0.33 0.17 0.00 0.36 0.17 0.00 0.38 0.17 0.00 0.41 0.17 0.00 0.44 0.17 0.00 0.46 0.17 0.00 0.49 0.17 0.00 0.51 0.17 0.00 0.54 0.17 0.00 0.56 0.17 0.00 0.59 0.17 0.00 0.62 0.17 0.00 0.64 0.17 0.00 0.67 0.17 0.00 0.69 0.17 0.00 0.72 0.17 0.00 0.74 0.17 0.00 0.77 0.17 0.00 0.79 0.17 0.00 0.82 0.17 0.00 0.85 0.17 0.00 0.87 0.17 0.00 0.90 0.17 0.00 0.92 0.17 0.00 0.95 0.17 0.00 0.97 0.17 0.00 1.00 0.17 0.00 0.00 0.17 0.00 0.03 0.17 0.00 0.05 0.17 0.00 0.08 0.17 0.00 0.10 0.17 0.00 0.13 0.17 0.00 0.15 0.17 0.00 0.18 0.17 0.00 0.21 0.17 0.00 0.23 0.17 0.00 0.26 0.17 0.00 0.28 0.17 0.00 0.31 0.17 0.00 0.33 0.17 0.00 0.36 0.17 0.00 0.38 0.17 0.00 0.41 0.17 0.00 0.44 0.17 0.00 0.46 0.17 0.00 0.49 0.17 0.00 0.51 0.17 0.00 0.54 0.17 0.00 0.56 0.17 0.00 0.59 0.17 0.00 0.62 0.17 0.00 0.64 0.17 0.00 0.67 0.17 0.00 0.69 0.17 0.00 0.72 0.17 0.00 0.74 0.17 0.00 0.77 0.17 0.00 0.79 0.17 0.00 0.82 0.17 0.00 0.85 0.17 0.00 0.87 0.17 0.00 0.90 0.17 0.00 0.92 0.17 0.00 0.95 0.17 0.00 0.97 0.17 0.00 1.00 0.17 0.00 0.00 0.16 0.00 0.03 0.16 0.00 0.05 0.16 0.00 0.08 0.16 0.00 0.10 0.16 0.00 0.13 0.16 0.00 0.15 0.16 0.00 0.18 0.16 0.00 0.21 0.16 0.00 0.23 0.16 0.00 0.26 0.16 0.00 0.28 0.16 0.00 0.31 0.16 0.00 0.33 0.16 0.00 0.36 0.16 0.00 0.38 0.16 0.00 0.41 0.16 0.00 0.44 0.16 0.00 0.46 0.16 0.00 0.49 0.16 0.00 0.51 0.16 0.00 0.54 0.16 0.00 0.56 0.16 0.00 0.59 0.16 0.00 0.62 0.16 0.00 0.64 0.16 0.00 0.67 0.16 0.00 0.69 0.16 0.00 0.72 0.16 0.00 0.74 0.16 0.00 0.77 0.16 0.00 0.79 0.16 0.00 0.82 0.16 0.00 0.85 0.16 0.00 0.87 0.16 0.00 0.90 0.16 0.00 0.92 0.16 0.00 0.95 0.16 0.00 0.97 0.16 0.00 1.00 0.16 0.00 0.00 0.16 0.00 0.03 0.16 0.00 0.05 0.16 0.00 0.08 0.16 0.00 0.10 0.16 0.00 0.13 0.16 0.00 0.15 0.16 0.00 0.18 0.16 0.00 0.21 0.16 0.00 0.23 0.16 0.00 0.26 0.16 0.00 0.28 0.16 0.00 0.31 0.16 0.00 0.33 0.16 0.00 0.36 0.16 0.00 0.38 0.16 0.00 0.41 0.16 0.00 0.44 0.16 0.00 0.46 0.16 0.00 0.49 0.16 0.00 0.51 0.16 0.00 0.54 0.16 0.00 0.56 0.16 0.00 0.59 0.16 0.00 0.62 0.16 0.00 0.64 0.16 0.00 0.67 0.16 0.00 0.69 0.16 0.00 0.72 0.16 0.00 0.74 0.16 0.00 0.77 0.16 0.00 0.79 0.16 0.00 0.82 0.16 0.00 0.85 0.16 0.00 0.87 0.16 0.00 0.90 0.16 0.00 0.92 0.16 0.00 0.95 0.16 0.00 0.97 0.16 0.00 1.00 0.16 0.00 0.00 0.16 0.00 0.03 0.16 0.00 0.05 0.16 0.00 0.08 0.16 0.00 0.10 0.16 0.00 0.13 0.16 0.00 0.15 0.16 0.00 0.18 0.16 0.00 0.21 0.16 0.00 0.23 0.16 0.00 0.26 0.16 0.00 0.28 0.16 0.00 0.31 0.16 0.00 0.33 0.16 0.00 0.36 0.16 0.00 0.38 0.16 0.00 0.41 0.16 0.00 0.44 0.16 0.00 0.46 0.16 0.00 0.49 0.16 0.00 0.51 0.16 0.00 0.54 0.16 0.00 0.56 0.16 0.00 0.59 0.16 0.00 0.62 0.16 0.00 0.64 0.16 0.00 0.67 0.16 0.00 0.69 0.16 0.00 0.72 0.16 0.00 0.74 0.16 0.00 0.77 0.16 0.00 0.79 0.16 0.00 0.82 0.16 0.00 0.85 0.16 0.00 0.87 0.16 0.00 0.90 0.16 0.00 0.92 0.16 0.00 0.95 0.16 0.00 0.97 0.16 0.00 1.00 0.16 0.00 0.00 0.15 0.00 0.03 0.15 0.00 0.05 0.15 0.00 0.08 0.15 0.00 0.10 0.15 0.00 0.13 0.15 0.00 0.15 0.15 0.00 0.18 0.15 0.00 0.21 0.15 0.00 0.23 0.15 0.00 0.26 0.15 0.00 0.28 0.15 0.00 0.31 0.15 0.00 0.33 0.15 0.00 0.36 0.15 0.00 0.38 0.15 0.00 0.41 0.15 0.00 0.44 0.15 0.00 0.46 0.15 0.00 0.49 0.15 0.00 0.51 0.15 0.00 0.54 0.15 0.00 0.56 0.15 0.00 0.59 0.15 0.00 0.62 0.15 0.00 0.64 0.15 0.00 0.67 0.15 0.00 0.69 0.15 0.00 0.72 0.15 0.00 0.74 0.15 0.00 0.77 0.15 0.00 0.79 0.15 0.00 0.82 0.15 0.00 0.85 0.15 0.00 0.87 0.15 0.00 0.90 0.15 0.00 0.92 0.15 0.00 0.95 0.15 0.00 0.97 0.15 0.00 1.00 0.15 0.00 0.00 0.15 0.00 0.03 0.15 0.00 0.05 0.15 0.00 0.08 0.15 0.00 0.10 0.15 0.00 0.13 0.15 0.00 0.15 0.15 0.00 0.18 0.15 0.00 0.21 0.15 0.00 0.23 0.15 0.00 0.26 0.15 0.00 0.28 0.15 0.00 0.31 0.15 0.00 0.33 0.15 0.00 0.36 0.15 0.00 0.38 0.15 0.00 0.41 0.15 0.00 0.44 0.15 0.00 0.46 0.15 0.00 0.49 0.15 0.00 0.51 0.15 0.00 0.54 0.15 0.00 0.56 0.15 0.00 0.59 0.15 0.00 0.62 0.15 0.00 0.64 0.15 0.00 0.67 0.15 0.00 0.69 0.15 0.00 0.72 0.15 0.00 0.74 0.15 0.00 0.77 0.15 0.00 0.79 0.15 0.00 0.82 0.15 0.00 0.85 0.15 0.00 0.87 0.15 0.00 0.90 0.15 0.00 0.92 0.15 0.00 0.95 0.15 0.00 0.97 0.15 0.00 1.00 0.15 0.00 0.00 0.14 0.00 0.03 0.14 0.00 0.05 0.14 0.00 0.08 0.14 0.00 0.10 0.14 0.00 0.13 0.14 0.00 0.15 0.14 0.00 0.18 0.14 0.00 0.21 0.14 0.00 0.23 0.14 0.00 0.26 0.14 0.00 0.28 0.14 0.00 0.31 0.14 0.00 0.33 0.14 0.00 0.36 0.14 0.00 0.38 0.14 0.00 0.41 0.14 0.00 0.44 0.14 0.00 0.46 0.14 0.00 0.49 0.14 0.00 0.51 0.14 0.00 0.54 0.14 0.00 0.56 0.14 0.00 0.59 0.14 0.00 0.62 0.14 0.00 0.64 0.14 0.00 0.67 0.14 0.00 0.69 0.14 0.00 0.72 0.14 0.00 0.74 0.14 0.00 0.77 0.14 0.00 0.79 0.14 0.00 0.82 0.14 0.00 0.85 0.14 0.00 0.87 0.14 0.00 0.90 0.14 0.00 0.92 0.14 0.00 0.95 0.14 0.00 0.97 0.14 0.00 1.00 0.14 0.00 0.00 0.14 0.00 0.03 0.14 0.00 0.05 0.14 0.00 0.08 0.14 0.00 0.10 0.14 0.00 0.13 0.14 0.00 0.15 0.14 0.00 0.18 0.14 0.00 0.21 0.14 0.00 0.23 0.14 0.00 0.26 0.14 0.00 0.28 0.14 0.00 0.31 0.14 0.00 0.33 0.14 0.00 0.36 0.14 0.00 0.38 0.14 0.00 0.41 0.14 0.00 0.44 0.14 0.00 0.46 0.14 0.00 0.49 0.14 0.00 0.51 0.14 0.00 0.54 0.14 0.00 0.56 0.14 0.00 0.59 0.14 0.00 0.62 0.14 0.00 0.64 0.14 0.00 0.67 0.14 0.00 0.69 0.14 0.00 0.72 0.14 0.00 0.74 0.14 0.00 0.77 0.14 0.00 0.79 0.14 0.00 0.82 0.14 0.00 0.85 0.14 0.00 0.87 0.14 0.00 0.90 0.14 0.00 0.92 0.14 0.00 0.95 0.14 0.00 0.97 0.14 0.00 1.00 0.14 0.00 0.00 0.13 0.00 0.03 0.13 0.00 0.05 0.13 0.00 0.08 0.13 0.00 0.10 0.13 0.00 0.13 0.13 0.00 0.15 0.13 0.00 0.18 0.13 0.00 0.21 0.13 0.00 0.23 0.13 0.00 0.26 0.13 0.00 0.28 0.13 0.00 0.31 0.13 0.00 0.33 0.13 0.00 0.36 0.13 0.00 0.38 0.13 0.00 0.41 0.13 0.00 0.44 0.13 0.00 0.46 0.13 0.00 0.49
[...]
POINT_DATA 2000
SCALARS Temperature float
LOOKUP_TABLE default
1000.00 1000.00 1000.00 1000.00 1000.00 1000.00 1000.00 1000.00 1000.00 1000.00 1000.00 1000.00 1000.00 1000.00 1000.00 1000.00 1000.00 1000.00 1000.00 1000.00 1000.00 1000.00 1000.00 1000.00 1000.00 1000.00 1000.00 1000.00 1000.00 1000.00 1000.00 1000.00 1000.00 1000.00 1000.00 1000.00 1000.00 1000.00 1000.00 1000.00 0.00 118.90 217.32 299.11 367.34 424.44 472.37 512.69 546.67 575.32 599.46 619.73 636.68 650.74 662.23 671.44 678.58 683.80 687.22 688.91 688.91 687.22 683.80 678.58 671.44 662.23 650.74 636.68 619.73 599.46 575.32 546.67 512.69 472.37 424.44 367.34 299.11 217.32 118.90 0.00 0.00 46.12 90.93 133.62 173.65 210.76 244.82 275.81 303.79 328.85 351.11 370.69 387.74 402.36 414.67 424.78 432.76 438.68 442.60 444.55 444.55 442.60 438.68 432.76 424.78 414.67 402.36 387.74 370.69 351.11 328.85 303.79 275.81 244.82 210.76 173.65 133.62 90.93 46.12 0.00 0.00 24.55 48.82 72.55 95.49 117.46 138.30 157.88 176.10 192.90 208.22 222.04 234.33 245.07 254.28 261.94 268.06 272.64 275.70 277.22 277.22 275.70 272.64 268.06 261.94 254.28 245.07 234.33 222.04 208.22 192.90 176.10 157.88 138.30 117.46 95.49 72.55 48.82 24.55 0.00 0.00 14.22 28.33 42.21 55.75 68.85 81.42 93.38 104.65 115.17 124.88 133.73 141.69 148.71 154.78 159.86 163.95 167.03 169.08 170.11 170.11 169.08 167.03 163.95 159.86 154.78 148.71 141.69 133.73 124.88 115.17 104.65 93.38 81.42 68.85 55.75 42.21 28.33 14.22 0.00 0.00 8.47 16.89 25.18 33.30 41.18 48.77 56.03 62.91 69.36 75.34 80.82 85.77 90.16 93.96 97.17 99.75 101.69 103.00 103.65 103.65 103.00 101.69 99.75 97.17 93.96 90.16 85.77 80.82 75.34 69.36 62.91 56.03 48.77 41.18 33.30 25.18 16.89 8.47 0.00 0.00 5.10 10.17 15.17 20.06 24.83 29.42 33.82 38.00 41.93 45.58 48.93 51.96 54.65 56.99 58.96 60.55 61.75 62.56 62.96 62.96 62.56 61.75 60.55 58.96 56.99 54.65 51.96 48.93 45.58 41.93 38.00 33.82 29.42 24.83 20.06 15.17 10.17 5.10 0.00 0.00 3.08 6.15 9.17 12.13 15.02 17.80 20.47 23.00 25.38 27.60 29.64 31.49 33.13 34.55 35.75 36.72 37.46 37.95 38.20 38.20 37.95 37.46 36.72 35.75 34.55 33.13 31.49 29.64 27.60 25.38 23.00 20.47 17.80 15.02 12.13 9.17 6.15 3.08 0.00 0.00 1.87 3.72 5.55 7.35 9.09 10.78 12.40 13.93 15.38 16.72 17.96 19.08 20.08 20.94 21.68 22.27 22.71 23.01 23.16 23.16 23.01 22.71 22.27 21.68 20.94 20.08 19.08 17.96 16.72 15.38 13.93 12.40 10.78 9.09 7.35 5.55 3.72 1.87 0.00 0.00 1.13 2.25 3.36 4.45 5.51 6.53 7.51 8.44 9.32 10.14 10.89 11.57 12.17 12.70 13.14 13.50 13.77 13.95 14.04 14.04 13.95 13.77 13.50 13.14 12.70 12.17 11.57 10.89 10.14 9.32 8.44 7.51 6.53 5.51 4.45 3.36 2.25 1.13 0.00 0.00 0.69 1.37 2.04 2.70 3.34 3.96 4.55 5.12 5.65 6.14 6.60 7.01 7.38 7.70 7.96 8.18 8.35 8.46 8.51 8.51 8.46 8.35 8.18 7.96 7.70 7.38 7.01 6.60 6.14 5.65 5.12 4.55 3.96 3.34 2.70 2.04 1.37 0.69 0.00 0.00 0.42 0.83 1.24 1.64 2.02 2.40 2.76 3.10 3.42 3.72 4.00 4.25 4.47 4.66 4.83 4.96 5.06 5.13 5.16 5.16 5.13 5.06 4.96 4.83 4.66 4.47 4.25 4.00 3.72 3.42 3.10 2.76 2.40 2.02 1.64 1.24 0.83 0.42 0.00 0.00 0.25 0.50 0.75 0.99 1.23 1.45 1.67 1.88 2.08 2.26 2.42 2.58 2.71 2.83 2.93 3.01 3.07 3.11 3.13 3.13 3.11 3.07 3.01 2.93 2.83 2.71 2.58 2.42 2.26 2.08 1.88 1.67 1.45 1.23 0.99 0.75 0.50 0.25 0.00 0.00 0.15 0.30 0.45 0.60 0.74 0.88 1.01 1.14 1.26 1.37 1.47 1.56 1.64 1.71 1.77 1.82 1.86 1.88 1.90 1.90 1.88 1.86 1.82 1.77 1.71 1.64 1.56 1.47 1.37 1.26 1.14 1.01 0.88 0.74 0.60 0.45 0.30 0.15 0.00 0.00 0.09 0.18 0.28 0.36 0.45 0.53 0.61 0.69 0.76 0.83 0.89 0.95 1.00 1.04 1.08 1.10 1.13 1.14 1.15 1.15 1.14 1.13 1.10 1.08 1.04 1.00 0.95 0.89 0.83 0.76 0.69 0.61 0.53 0.45 0.36 0.28 0.18 0.09 0.00 0.00 0.06 0.11 0.17 0.22 0.27 0.32 0.37 0.42 0.46 0.50 0.54 0.57 0.60 0.63 0.65 0.67 0.68 0.69 0.70 0.70 0.69 0.68 0.67 0.65 0.63 0.60 0.57 0.54 0.50 0.46 0.42 0.37 0.32 0.27 0.22 0.17 0.11 0.06 0.00 0.00 0.03 0.07 0.10 0.13 0.17 0.20 0.23 0.25 0.28 0.30 0.33 0.35 0.37 0.38 0.39 0.41 0.41 0.42 0.42 0.42 0.42 0.41 0.41 0.39 0.38 0.37 0.35 0.33 0.30 0.28 0.25 0.23 0.20 0.17 0.13 0.10 0.07 0.03 0.00 0.00 0.02 0.04 0.06 0.08 0.10 0.12 0.14 0.15 0.17 0.18 0.20 0.21 0.22 0.23 0.24 0.25 0.25 0.25 0.26 0.26 0.25 0.25 0.25 0.24 0.23 0.22 0.21 0.20 0.18 0.17 0.15 0.14 0.12 0.10 0.08 0.06 0.04 0.02 0.00 0.00 0.01 0.02 0.04 0.05 0.06 0.07 0.08 0.09 0.10 0.11 0.12 0.13 0.13 0.14 0.15 0.15 0.15 0.15 0.16 0.16 0.15 0.15 0.15 0.15 0.14 0.13 0.13 0.12 0.11 0.10 0.09 0.08 0.07 0.06 0.05 0.04 0.02 0.01 0.00 0.00 0.01 0.02 0.02 0.03 0.04 0.04 0.05 0.06 0.06 0.07 0.07 0.08 0.08 0.09 0.09 0.09 0.09 0.09 0.09 0.09 0.09 0.09 0.09 0.09 0.09 0.08 0.08 0.07 0.07 0.06 0.06 0.05 0.04 0.04 0.03 0.02 0.02 0.01 0.00 0.00 0.00 0.01 0.01 0.02 0.02 0.03 0.03 0.03 0.04 0.04 0.04 0.05 0.05 0.05 0.05 0.05 0.06 0.06 0.06 0.06 0.06 0.06 0.05 0.05 0.05 0.05 0.05 0.04 0.04 0.04 0.03 0.03 0.03 0.02 0.02 0.01 0.01 0.00 0.00 0.00 0.00 0.01 0.01 0.01 0.01 0.02 0.02 0.02 0.02 0.03 0.03 0.03 0.03 0.03 0.03 0.03 0.03 0.03 0.03 0.03 0.03 0.03 0.03 0.03 0.03 0.03 0.03 0.03 0.03 0.02 0.02 0.02 0.02 0.01 0.01 0.01 0.01 0.00 0.00 0.00 0.00 0.00 0.01 0.01 0.01 0.01 0.01 0.01 0.01 0.02 0.02 0.02 0.02 0.02 0.02 0.02 0.02 0.02 0.02 0.02 0.02 0.02 0.02 0.02 0.02 0.02 0.02 0.02 0.02 0.01 0.01 0.01 0.01 0.01 0.01 0.01 0.00 0.00 0.00 0.00 0.00 0.00 0.00 0.00 0.01 0.01 0.01 0.01 0.01 0.01 0.01 0.01 0.01 0.01 0.01 0.01 0.01 0.01 0.01 0.01 0.01 0.01 0.01 0.01 0.01 0.01 0.01 0.01 0.01 0.01 0.01 0.01 0.01 0.01 0.00 0.00 0.00 0.00 0.00 0.00 0.00 0.00 0.00 0.00 0.00 0.00 0.00 0.01 0.01 0.01 0.01 0.01 0.01 0.01 0.01 0.01 0.01 0.01 0.01 0.01 0.01 0.01 0.01 0.01 0.01 0.01 0.01 0.01 0.01 0.01 0.01 0.00 0.00 0.00 0.00 0.00 0.00 0.00 0.00 0.00 0.00 0.00 0.00 0.00 0.00 0.00 0.00 0.00 0.00 0.00 0.01 0.01 0.01 0.01 0.01 0.01 0.01 0.01 0.01 0.01 0.01 0.01 0.01 0.01 0.01 0.01 0.01 0.01 0.00 0.00 0.00 0.00 0.00 0.00 0.00 0.00 0.00 0.00 0.00 0.00 0.00 0.00 0.00 0.00 0.00 0.00 0.00 0.00 0.00 0.00 0.00 0.00 0.01 0.01 0.01 0.01 0.01 0.01 0.01 0.01 0.01 0.01 0.01 0.01 0.01 0.01 0.00 0.00 0.00 0.00 0.00 0.00 0.00 0.00 0.00 0.00 0.00 0.00 0.00 0.00 0.00 0.00 0.00 0.00 0.00 0.00 0.00 0.00 0.00 0.01 0.01 0.01 0.01 0.01 0.01 0.01 0.01 0.01 0.01 0.01 0.01 0.01 0.01 0.01 0.01 0.01 0.01 0.01 0.01 0.00 0.00 0.00 0.00 0.00 0.00 0.00 0.00 0.00 0.00 0.00 0.00 0.00 0.00 0.00 0.00 0.00 0.01 0.01 0.01 0.01 0.01 0.01 0.01 0.01 0.01 0.01 0.01 0.01 0.01 0.01 0.01 0.01 0.01 0.01 0.01 0.01 0.01 0.01 0.01 0.01 0.01 0.01 0.00 0.00 0.00 0.00 0.00 0.00 0.00 0.00 0.00 0.00 0.00 0.00 0.01 0.01 0.01 0.01 0.01 0.01 0.01 0.01 0.01 0.01 0.01 0.01 0.01 0.01 0.01 0.01 0.01 0.01 0.01 0.01 0.01 0.01 0.01 0.01 0.01 0.01 0.01 0.01 0.01 0.01 0.00 0.00 0.00 0.00 0.00 0.00 0.00 0.00 0.01 0.01 0.01 0.01 0.01 0.01 0.02 0.02 0.02 0.02 0.02 0.02 0.02 0.02 0.02 0.02 0.02 0.02 0.02 0.02 0.02 0.02 0.02 0.02 0.02 0.02 0.02 0.02 0.01 0.01 0.01 0.01 0.01 0.01 0.00 0.00 0.00 0.00 0.00 0.01 0.01 0.01 0.02 0.02 0.02 0.02 0.03 0.03 0.03 0.03 0.03 0.04 0.04 0.04 0.04 0.04 0.04 0.04 0.04 0.04 0.04 0.04 0.04 0.03 0.03 0.03 0.03 0.03 0.02 0.02 0.02 0.02 0.01 0.01 0.01 0.00 0.00 0.00 0.01 0.01 0.02 0.02 0.03 0.03 0.03 0.04 0.04 0.05 0.05 0.05 0.06 0.06 0.06 0.06 0.06 0.06 0.06 0.06 0.06 0.06 0.06 0.06 0.06 0.06 0.05 0.05 0.05 0.04 0.04 0.03 0.03 0.03 0.02 0.02 0.01 0.01 0.00 0.00 0.01 0.02 0.03 0.03 0.04 0.05 0.06 0.06 0.07 0.08 0.08 0.09 0.09 0.10 0.10 0.10 0.10 0.10 0.11 0.11 0.10 0.10 0.10 0.10 0.10 0.09 0.09 0.08 0.08 0.07 0.06 0.06 0.05 0.04 0.03 0.03 0.02 0.01 0.00 0.00 0.01 0.03 0.04 0.06 0.07 0.08 0.09 0.10 0.12 0.13 0.13 0.14 0.15 0.16 0.16 0.17 0.17 0.17 0.17 0.17 0.17 0.17 0.17 0.16 0.16 0.15 0.14 0.13 0.13 0.12 0.10 0.09 0.08 0.07 0.06 0.04 0.03 0.01 0.00 0.00 0.02 0.05 0.07 0.09 0.11 0.13 0.15 0.17 0.19 0.21 0.22 0.24 0.25 0.26 0.27 0.28 0.28 0.29 0.29 0.29 0.29 0.28 0.28 0.27 0.26 0.25 0.24 0.22 0.21 0.19 0.17 0.15 0.13 0.11 0.09 0.07 0.05 0.02 0.00 0.00 0.04 0.08 0.11 0.15 0.19 0.22 0.25 0.28 0.31 0.34 0.37 0.39 0.41 0.43 0.44 0.46 0.46 0.47 0.47 0.47 0.47 0.46 0.46 0.44 0.43 0.41 0.39 0.37 0.34 0.31 0.28 0.25 0.22 0.19 0.15 0.11 0.08 0.04 0.00 0.00 0.06 0.13 0.19 0.25 0.31 0.36 0.42 0.47 0.52 0.56 0.61 0.64 0.68 0.71 0.73 0.75 0.77 0.78 0.78 0.78 0.78 0.77 0.75 0.73 0.71 0.68 0.64 0.61 0.56 0.52 0.47 0.42 0.36 0.31 0.25 0.19 0.13 0.06 0.00 0.00 0.10 0.21 0.31 0.41 0.51 0.60 0.69 0.78 0.86 0.93 1.00 1.06 1.12 1.17 1.21 1.24 1.26 1.28 1.29 1.29 1.28 1.26 1.24 1.21 1.17 1.12 1.06 1.00 0.93 0.86 0.78 0.69 0.60 0.51 0.41 0.31 0.21 0.10 0.00 0.00 0.17 0.34 0.51 0.67 0.83 0.99 1.14 1.28 1.41 1.54 1.65 1.75 1.84 1.92 1.99 2.05 2.09 2.11 2.13 2.13 2.11 2.09 2.05 1.99 1.92 1.84 1.75 1.65 1.54 1.41 1.28 1.14 0.99 0.83 0.67 0.51 0.34 0.17 0.00 0.00 0.28 0.56 0.84 1.11 1.38 1.63 1.88 2.11 2.33 2.53 2.72 2.89 3.04 3.17 3.28 3.37 3.44 3.49 3.51 3.51 3.49 3.44 3.37 3.28 3.17 3.04 2.89 2.72 2.53 2.33 2.11 1.88 1.63 1.38 1.11 0.84 0.56 0.28 0.00 0.00 0.47 0.93 1.39 1.84 2.27 2.70 3.10 3.48 3.84 4.18 4.49 4.77 5.02 5.24 5.42 5.57 5.68 5.75 5.79 5.79 5.75 5.68 5.57 5.42 5.24 5.02 4.77 4.49 4.18 3.84 3.48 3.10 2.70 2.27 1.84 1.39 0.93 0.47 0.00 0.00 0.77 1.54 2.29 3.03 3.75 4.45 5.12 5.75 6.35 6.90 7.41 7.87 8.28 8.64 8.94 9.18 9.36 9.49 9.55 9.55 9.49 9.36 9.18 8.94 8.64 8.28 7.87 7.41 6.90 6.35 5.75 5.12 4.45 3.75 3.03 2.29 1.54 0.77 0.00 0.00 1.28 2.54 3.79 5.02 6.21 7.36 8.46 9.50 10.48 11.39 12.23 12.99 13.66 14.25 14.74 15.14 15.44 15.64 15.74 15.74 15.64 15.44 15.14 14.74 14.25 13.66 12.99 12.23 11.39 10.48 9.50 8.46 7.36 6.21 5.02 3.79 2.54 1.28 0.00 0.00 2.12 4.22 6.30 8.32 10.29 12.19 14.01 15.73 17.34 18.83 20.21 21.44 22.54 23.49 24.29 24.94 25.42 25.75 25.91 25.91 25.75 25.42 24.94 24.29 23.49 22.54 21.44 20.21 18.83 17.34 15.73 14.01 12.19 10.29 8.32 6.30 4.22 2.12 0.00 0.00 3.56 7.08 10.55 13.94 17.21 20.36 23.35 26.16 28.79 31.22 33.43 35.42 37.18 38.69 39.97 40.99 41.76 42.27 42.53 42.53 42.27 41.76 40.99 39.97 38.69 37.18 35.42 33.43 31.22 28.79 26.16 23.35 20.36 17.21 13.94 10.55 7.08 3.56 0.00 0.00 6.14 12.21 18.14 23.87 29.36 34.57 39.47 44.02 48.22 52.06 55.51 58.58 61.27 63.57 65.48 67.01 68.16 68.92 69.31 69.31 68.92 68.16 67.01 65.48 63.57 61.27 58.58 55.51 52.06 48.22 44.02 39.47 34.57 29.36 23.87 18.14 12.21 6.14 0.00 0.00 11.53 22.73 33.40 43.41 52.69 61.20 68.95 75.95 82.21 87.78 92.67 96.93 100.59 103.67 106.19 108.19 109.67 110.65 111.14 111.14 110.65 109.67 108.19 106.19 103.67 100.59 96.93 92.67 87.78 82.21 75.95 68.95 61.20 52.69 43.41 33.40 22.73 11.53 0.00 0.00 29.73 54.33 74.78 91.83 106.11 118.09 128.17 136.67 143.83 149.86 154.93 159.17 162.68 165.56 167.86 169.64 170.95 171.80 172.23 172.23 171.80 170.95 169.64 167.86 165.56 162.68 159.17 154.93 149.86 143.83 136.67 128.17 118.09 106.11 91.83 74.78 54.33 29.73 0.00 250.00 250.00 250.00 250.00 250.00 250.00 250.00 250.00 250.00 250.00 250.00 250.00 250.00 250.00 250.00 250.00 250.00 250.00 250.00 250.00 250.00 250.00 250.00 250.00 250.00 250.00 250.00 250.00 250.00 250.00 250.00 250.00 250.00 250.00 250.00 250.00 250.00 250.00 250.00 250.00 